# vtk DataFile Version 3.0
MOAB 5.1.1
ASCII
DATASET UNSTRUCTURED_GRID
POINTS 16 double
25 -5 5
25 5 5
15 5 5
15 -5 5
25 5 -5
25 -5 -5
15 -5 -5
15 5 -5
5 -5 5
5 -5 -5
5 5 -5
5 5 5
-5 5 5
-5 -5 5
-5 -5 -5
-5 5 -5
CELLS 60 212
2 0 1
2 1 2
2 2 3
2 3 0
2 4 5
2 5 6
2 6 7
2 7 4
2 3 6
2 0 5
2 2 7
2 1 4
2 8 3
2 9 10
2 10 7
2 8 9
2 11 10
2 2 11
2 11 8
2 6 9
2 11 12
2 12 13
2 13 8
2 9 14
2 14 15
2 15 10
2 13 14
2 12 15
3 1 2 0
3 0 2 3
3 5 6 4
3 4 6 7
3 3 6 0
3 0 6 5
3 2 7 3
3 3 7 6
3 1 4 2
3 2 4 7
3 0 5 1
3 1 5 4
3 8 9 3
3 3 9 6
3 11 10 8
3 8 10 9
3 2 7 11
3 11 7 10
3 2 11 3
3 3 11 8
3 6 9 7
3 7 9 10
3 11 12 8
3 8 12 13
3 9 14 10
3 10 14 15
3 13 14 8
3 8 14 9
3 12 15 13
3 13 15 14
3 11 10 12
3 12 10 15
CELL_TYPES 60
3
3
3
3
3
3
3
3
3
3
3
3
3
3
3
3
3
3
3
3
3
3
3
3
3
3
3
3
5
5
5
5
5
5
5
5
5
5
5
5
5
5
5
5
5
5
5
5
5
5
5
5
5
5
5
5
5
5
5
5
POINT_DATA 16
SCALARS GLOBAL_ID int 1
LOOKUP_TABLE default
0 
0 
0 
0 
0 
0 
0 
0 
0 
0 
0 
0 
0 
0 
0 
0 
CELL_DATA 60
SCALARS GLOBAL_ID int 1
LOOKUP_TABLE default
0 
0 
0 
0 
0 
0 
0 
0 
0 
0 
0 
0 
0 
0 
0 
0 
0 
0 
0 
0 
0 
0 
0 
0 
0 
0 
0 
0 
0 
0 
0 
0 
0 
0 
0 
0 
0 
0 
0 
0 
0 
0 
0 
0 
0 
0 
0 
0 
0 
0 
0 
0 
0 
0 
0 
0 
0 
0 
0 
0 
